# vtk DataFile Version 4.2
vtk output
ASCII
DATASET UNSTRUCTURED_GRID
POINTS 11652 double
-1 0 0 0 1 0 0 0 1 
-6.1232339957e-17 -1 0 1 -1.2246467991e-16 0 -6.1232339957e-17 0 -1 
-0.9987954562 0.049067674445 0 -0.99518472665 0.098017140555 0 -0.98917650991 0.14673047481 0 
-0.9807852803 0.19509032252 0 -0.97003125304 0.24298018054 0 -0.9569403355 0.29028467802 0 
-0.94154406486 0.3368898543 0 -0.92387953208 0.38268343341 0 -0.90398929258 0.42755509458 0 
-0.88192126368 0.47139673807 0 -0.85772860921 0.5141027455 0 -0.83146961136 0.55557023443 0 
-0.80320753038 0.59569930598 0 -0.77301045207 0.63439328574 0 -0.74095112389 0.67155895647 0 
-0.70710677955 0.70710678283 0 -0.67155895324 0.74095112681 0 -0.63439328263 0.77301045462 0 
-0.59569930306 0.80320753254 0 -0.55557023163 0.83146961323 0 -0.51410274281 0.85772861083 0 
-0.47139673553 0.88192126504 0 -0.42755509221 0.9039892937 0 -0.38268343124 0.92387953298 0 
-0.33688985236 0.94154406555 0 -0.29028467637 0.956940336 0 -0.24298017919 0.97003125337 0 
-0.19509032142 0.98078528052 0 -0.14673047398 0.98917651003 0 -0.098017140032 0.9951847267 0 
-0.049067674204 0.99879545621 0 -0.049067674445 0 0.9987954562 -0.098017140555 0 0.99518472665 
-0.14673047481 0 0.98917650991 -0.19509032252 0 0.9807852803 -0.24298018054 0 0.97003125304 
-0.29028467802 0 0.9569403355 -0.3368898543 0 0.94154406486 -0.38268343341 0 0.92387953208 
-0.42755509458 0 0.90398929258 -0.47139673807 0 0.88192126368 -0.5141027455 0 0.85772860921 
-0.55557023443 0 0.83146961136 -0.59569930598 0 0.80320753038 -0.63439328574 0 0.77301045207 
-0.67155895647 0 0.74095112389 -0.70710678283 0 0.70710677955 -0.74095112681 0 0.67155895324 
-0.77301045462 0 0.63439328263 -0.80320753254 0 0.59569930306 -0.83146961323 0 0.55557023163 
-0.85772861083 0 0.51410274281 -0.88192126504 0 0.47139673553 -0.9039892937 0 0.42755509221 
-0.92387953298 0 0.38268343124 -0.94154406555 0 0.33688985236 -0.956940336 0 0.29028467637 
-0.97003125337 0 0.24298017919 -0.98078528052 0 0.19509032142 -0.98917651003 0 0.14673047398 
-0.9951847267 0 0.098017140032 -0.99879545621 0 0.049067674204 0 0.049067674445 0.9987954562 
0 0.098017140555 0.99518472665 0 0.14673047481 0.98917650991 0 0.19509032252 0.9807852803 
0 0.24298018054 0.97003125304 0 0.29028467802 0.9569403355 0 0.3368898543 0.94154406486 
0 0.38268343341 0.92387953208 0 0.42755509458 0.90398929258 0 0.47139673807 0.88192126368 
0 0.5141027455 0.85772860921 0 0.55557023443 0.83146961136 0 0.59569930598 0.80320753038 
0 0.63439328574 0.77301045207 0 0.67155895647 0.74095112389 0 0.70710678283 0.70710677955 
0 0.74095112681 0.67155895324 0 0.77301045462 0.63439328263 0 0.80320753254 0.59569930306 
0 0.83146961323 0.55557023163 0 0.85772861083 0.51410274281 0 0.88192126504 0.47139673553 
0 0.9039892937 0.42755509221 0 0.92387953298 0.38268343124 0 0.94154406555 0.33688985236 
0 0.956940336 0.29028467637 0 0.97003125337 0.24298017919 0 0.98078528052 0.19509032142 
0 0.98917651003 0.14673047398 0 0.9951847267 0.098017140032 0 0.99879545621 0.049067674204 
-0.049067674445 -0.9987954562 0 -0.098017140555 -0.99518472665 0 -0.14673047481 -0.98917650991 0 
-0.19509032252 -0.9807852803 0 -0.24298018054 -0.97003125304 0 -0.29028467802 -0.9569403355 0 
-0.3368898543 -0.94154406486 0 -0.38268343341 -0.92387953208 0 -0.42755509458 -0.90398929258 0 
-0.47139673807 -0.88192126368 0 -0.5141027455 -0.85772860921 0 -0.55557023443 -0.83146961136 0 
-0.59569930598 -0.80320753038 0 -0.63439328574 -0.77301045207 0 -0.67155895647 -0.74095112389 0 
-0.70710678283 -0.70710677955 0 -0.74095112681 -0.67155895324 0 -0.77301045462 -0.63439328263 0 
-0.80320753254 -0.59569930306 0 -0.83146961323 -0.55557023163 0 -0.85772861083 -0.51410274281 0 
-0.88192126504 -0.47139673553 0 -0.9039892937 -0.42755509221 0 -0.92387953298 -0.38268343124 0 
-0.94154406555 -0.33688985236 0 -0.956940336 -0.29028467637 0 -0.97003125337 -0.24298017919 0 
-0.98078528052 -0.19509032142 0 -0.98917651003 -0.14673047398 0 -0.9951847267 -0.098017140032 0 
-0.99879545621 -0.049067674204 0 -3.0045285226e-18 -0.049067674445 0.9987954562 -6.0018188721e-18 -0.098017140555 0.99518472665 
-8.9846503157e-18 -0.14673047481 0.98917650991 -1.1945836951e-17 -0.19509032252 0.9807852803 -1.4878245018e-17 -0.24298018054 0.97003125304 
-1.7774810089e-17 -0.29028467802 0.9569403355 -2.0628554087e-17 -0.3368898543 0.94154406486 -2.3432602091e-17 -0.38268343341 0.92387953208 
-2.6180198902e-17 -0.42755509458 0.90398929258 -2.886472532e-17 -0.47139673807 0.88192126368 -3.1479714086e-17 -0.5141027455 0.85772860921 
-3.4018865465e-17 -0.55557023443 0.83146961136 -3.6476062416e-17 -0.59569930598 0.80320753038 -3.8845385339e-17 -0.63439328574 0.77301045207 
-4.1121126324e-17 -0.67155895647 0.74095112389 -4.3297802912e-17 -0.70710678283 0.70710677955 -4.5370171289e-17 -0.74095112681 0.67155895324 
-4.7333238948e-17 -0.77301045462 0.63439328263 -4.9182276689e-17 -0.80320753254 0.59569930306 -5.0912830022e-17 -0.83146961323 0.55557023163 
-5.2520729889e-17 -0.85772861083 0.51410274281 -5.4002102717e-17 -0.88192126504 0.47139673553 -5.535337975e-17 -0.9039892937 0.42755509221 
-5.6571305643e-17 -0.92387953298 0.38268343124 -5.7652946307e-17 -0.94154406555 0.33688985236 -5.8595695973e-17 -0.956940336 0.29028467637 
-5.9397283476e-17 -0.97003125337 0.24298017919 -6.0055777722e-17 -0.98078528052 0.19509032142 -6.056959234e-17 -0.98917651003 0.14673047398 
-6.0937489506e-17 -0.9951847267 0.098017140032 -6.1158582923e-17 -0.99879545621 0.049067674204 0.9987954562 -0.049067674445 0 
0.99518472665 -0.098017140555 0 0.98917650991 -0.14673047481 0 0.9807852803 -0.19509032252 0 
0.97003125304 -0.24298018054 0 0.9569403355 -0.29028467802 0 0.94154406486 -0.3368898543 0 
0.92387953208 -0.38268343341 0 0.90398929258 -0.42755509458 0 0.88192126368 -0.47139673807 0 
0.85772860921 -0.5141027455 0 0.83146961136 -0.55557023443 0 0.80320753038 -0.59569930598 0 
0.77301045207 -0.63439328574 0 0.74095112389 -0.67155895647 0 0.70710677955 -0.70710678283 0 
0.67155895324 -0.74095112681 0 0.63439328263 -0.77301045462 0 0.59569930306 -0.80320753254 0 
0.55557023163 -0.83146961323 0 0.51410274281 -0.85772861083 0 0.47139673553 -0.88192126504 0 
0.42755509221 -0.9039892937 0 0.38268343124 -0.92387953298 0 0.33688985236 -0.94154406555 0 
0.29028467637 -0.956940336 0 0.24298017919 -0.97003125337 0 0.19509032142 -0.98078528052 0 
0.14673047398 -0.98917651003 0 0.098017140032 -0.9951847267 0 0.049067674204 -0.99879545621 0 
0.049067674445 -6.0090570451e-18 0.9987954562 0.098017140555 -1.2003637744e-17 0.99518472665 0.14673047481 -1.7969300631e-17 0.98917650991 
0.19509032252 -2.3891673902e-17 0.9807852803 0.24298018054 -2.9756490035e-17 0.97003125304 0.29028467802 -3.5549620178e-17 0.9569403355 
0.3368898543 -4.1257108173e-17 0.94154406486 0.38268343341 -4.6865204181e-17 0.92387953208 0.42755509458 -5.2360397804e-17 0.90398929258 
0.47139673807 -5.772945064e-17 0.88192126368 0.5141027455 -6.2959428171e-17 0.85772860921 0.55557023443 -6.803773093e-17 0.83146961136 
0.59569930598 -7.2952124833e-17 0.80320753038 0.63439328574 -7.7690770678e-17 0.77301045207 0.67155895647 -8.2242252648e-17 0.74095112389 
0.70710678283 -8.6595605824e-17 0.70710677955 0.74095112681 -9.0740342578e-17 0.67155895324 0.77301045462 -9.4666477896e-17 0.63439328263 
0.80320753254 -9.8364553378e-17 0.59569930306 0.83146961323 -1.0182566004e-16 0.55557023163 0.85772861083 -1.0504145978e-16 0.51410274281 
0.88192126504 -1.0800420543e-16 0.47139673553 0.9039892937 -1.107067595e-16 0.42755509221 0.92387953298 -1.1314261129e-16 0.38268343124 
0.94154406555 -1.1530589261e-16 0.33688985236 0.956940336 -1.1719139195e-16 0.29028467637 0.97003125337 -1.1879456695e-16 0.24298017919 
0.98078528052 -1.2011155544e-16 0.19509032142 0.98917651003 -1.2113918468e-16 0.14673047398 0.9951847267 -1.2187497901e-16 0.098017140032 
0.99879545621 -1.2231716585e-16 0.049067674204 0.049067674435 0.9987954562 0 0.098017140544 0.99518472665 0 
0.14673047478 0.98917650992 0 0.19509032248 0.98078528031 0 0.24298018048 0.97003125305 0 
0.29028467793 0.95694033553 0 0.3368898542 0.94154406489 0 0.38268343328 0.92387953213 0 
0.42755509448 0.90398929263 0 0.47139673797 0.88192126374 0 0.51410274536 0.8577286093 0 
0.55557023423 0.83146961149 0 0.59569930583 0.80320753049 0 0.63439328553 0.77301045224 0 
0.67155895625 0.74095112408 0 0.70710678257 0.70710677981 0 0.74095112657 0.6715589535 0 
0.77301045445 0.63439328284 0 0.80320753244 0.5956993032 0 0.83146961309 0.55557023185 0 
0.85772861068 0.51410274306 0 0.88192126492 0.47139673576 0 0.90398929362 0.42755509237 0 
0.92387953291 0.3826834314 0 0.94154406548 0.33688985256 0 0.95694033594 0.29028467657 0 
0.97003125335 0.2429801793 0 0.98078528051 0.19509032149 0 0.98917651002 0.14673047405 0 
0.99518472669 0.098017140105 0 0.99879545621 0.049067674281 0 -6.1158582922e-17 0.049067674445 -0.9987954562 
-6.0937489503e-17 0.098017140555 -0.99518472665 -6.0569592333e-17 0.14673047481 -0.98917650991 -6.0055777709e-17 0.19509032252 -0.9807852803 
-5.9397283455e-17 0.24298018054 -0.97003125304 -5.8595695942e-17 0.29028467802 -0.9569403355 -5.7652946264e-17 0.3368898543 -0.94154406486 
-5.6571305588e-17 0.38268343341 -0.92387953208 -5.5353379681e-17 0.42755509458 -0.90398929258 -5.4002102634e-17 0.47139673807 -0.88192126368 
-5.2520729791e-17 0.5141027455 -0.85772860921 -5.0912829907e-17 0.55557023443 -0.83146961136 -4.9182276556e-17 0.59569930598 -0.80320753038 
-4.7333238792e-17 0.63439328574 -0.77301045207 -4.537017111e-17 0.67155895647 -0.74095112389 -4.3297802711e-17 0.70710678283 -0.70710677955 
-4.1121126126e-17 0.74095112681 -0.67155895324 -3.8845385149e-17 0.77301045462 -0.63439328263 -3.6476062237e-17 0.80320753254 -0.59569930306 
-3.4018865293e-17 0.83146961323 -0.55557023163 -3.1479713921e-17 0.85772861083 -0.51410274281 -2.8864725165e-17 0.88192126504 -0.47139673553 
[...]
CELL_DATA 11648
SCALARS $\Phi$ double
LOOKUP_TABLE default
0.020779542363 0.030679680124 0.044288127244 0.0205231682 0.042488109685 0.090661597302 0.092266689404 0.022679813207 0.034829818649 
0.32019401794 0.34095462091 0.025086263223 0.023069213874 0.30462485738 0.28621945533 0.019350807935 0.25005554026 0.028201625798 
0.029652547321 0.18124785116 0.020586739446 0.022021092682 0.018719761454 0.2717995164 0.24929042115 0.01960534175 0.019402656907 
0.26037870769 0.062522859613 0.026044661284 0.062581304393 0.092063163965 0.020792931001 0.066184477791 0.070758950716 0.034559989717 
0.1618966304 0.02235894011 0.023101804277 0.018520487548 0.029529032195 0.31926868725 0.30949352786 0.081257363775 0.092428683962 
0.021239780132 0.020081289327 0.079077137661 0.020998501646 0.0278522188 0.029888252545 0.06108824049 0.018302678746 0.094225876302 
0.036495216793 0.094189925807 0.080472318777 0.074281960006 0.018946909821 0.13381734661 0.13405090755 0.12503779352 0.02193446478 
0.15805225639 0.059469656149 0.056662004822 0.019288703826 0.02000597286 0.019437333218 0.15660316046 0.040494985248 0.041190712415 
0.11383069566 0.035002174816 0.024070631974 0.023425890251 0.040263955626 0.043694757609 0.19497099171 0.19381598941 0.021584500701 
0.022980061824 0.091871115074 0.31842886731 0.098869765688 0.047161619956 0.071811062489 0.024986928006 0.047048484627 0.02651982782 
0.069552290783 0.024971740498 0.074318901056 0.023897786679 0.2083148311 0.0244446528 0.22673730857 0.22178200774 0.14478338812 
0.048833888852 0.048636969437 0.076013381365 0.075794208739 0.044824187065 0.29038830552 0.044359665946 0.21536345641 0.035291167159 
0.16719808992 0.15953945475 0.025919488003 0.025058576893 0.18161624717 0.1500349781 0.19499145147 0.1504560705 0.037777676839 
0.037939938778 0.039745285603 0.038267317136 0.035268887621 0.025300235011 0.034404645421 0.030857549063 0.057493175549 0.39659654441 
0.29512091626 0.12228384955 0.024148970775 0.024952214945 0.025709142014 0.12179333188 0.048882276805 0.028439048458 0.051257473046 
0.18276972403 0.30301486031 0.040439486207 0.29273839222 0.029059258805 0.057623290176 0.12508109 0.1209323213 0.038033056793 
0.029268591236 0.23486881613 0.019003274603 0.021360612184 0.048620522434 0.048560010262 0.03955533897 0.038260889646 0.052976059461 
0.052347357374 0.021705407148 0.23378546252 0.098359602491 0.030267953217 0.030361015953 0.026808763432 0.031162447218 0.024622606775 
0.10270313099 0.025367676308 0.02351381315 0.1070113207 0.11292233228 0.092267068651 0.045200393908 0.092335744588 0.021961181863 
0.03894115623 0.026715816511 0.11769844961 0.16366522845 0.024372669006 0.02411246155 0.27292856008 0.033294956652 0.15083102035 
0.28893867107 0.28819362511 0.022793581354 0.023452804 0.1415612264 0.24209258768 0.23298651477 0.053084378054 0.2418439776 
0.22983509587 0.01828971566 0.02035308635 0.035112365187 0.036382399293 0.16170431985 0.043774913393 0.040971583573 0.040829270054 
0.11434998558 0.16918019473 0.030496722856 0.028766235572 0.10238829419 0.032655095963 0.022292359826 0.032122178628 0.03348685198 
0.20901803688 0.03581229276 0.085494633279 0.039859123836 0.03516132099 0.019877203478 0.059067437671 0.020985272647 0.13192955547 
0.035425411301 0.05139752693 0.080048218657 0.022683701742 0.14178923058 0.020716322133 0.025247407897 0.024104771759 0.025013765066 
0.13337728553 0.19368363458 0.020224029484 0.13130158673 0.020797783577 0.020715914453 0.031655413472 0.020131931966 0.034574868711 
0.037484593438 0.017995915697 0.018400361434 0.046210928392 0.048657577326 0.017974102027 0.028375582057 0.029643195462 0.040346488276 
0.033444566239 0.046225307754 0.046243435302 0.077416890587 0.081301163852 0.052573526331 0.036799170475 0.026799690637 0.081069311009 
0.080957659479 0.047673224568 0.074602255768 0.023345616113 0.10237493119 0.02317123578 0.083377687389 0.069680519919 0.035314132124 
0.041794879418 0.041808161623 0.037863173087 0.038886657531 0.041754036036 0.028100989235 0.040436534942 0.024677191564 0.31981975001 
0.030544583601 0.03296220049 0.21393346998 0.03260949895 0.033711512468 0.031313688296 0.11474642461 0.086661993081 0.14124258224 
0.086403126476 0.080120421944 0.062855963566 0.10485620936 0.02049338547 0.026957422892 0.026922245784 0.019889456664 0.078782237272 
0.070255263912 0.063585960463 0.0636158818 0.027169620068 0.31233677278 0.026337068426 0.029306072705 0.043267521607 0.029399619948 
0.071888324418 0.074735126053 0.21917036591 0.21836247389 0.057769970395 0.05804120029 0.13489472316 0.076770452912 0.05284688185 
0.11162053178 0.046370743785 0.044291297589 0.051676021291 0.045692321663 0.045612656254 0.074550111575 0.087876264275 0.0490549421 
0.052577367605 0.040164658612 0.044808743322 0.03745164153 0.076938955405 0.044454678022 0.053091749467 0.048103671801 0.048315372087 
0.021254714837 0.076959785309 0.15739388305 0.16926540727 0.16874616835 0.020001117389 0.037114245783 0.038382775575 0.18805963844 
0.18827647493 0.23193840817 0.10265523043 0.10860364424 0.04885882555 0.20668793057 0.051520655489 0.060407696801 0.19681355406 
0.057912318652 0.066661034119 0.066844352844 0.021303049543 0.10390053222 0.023418022303 0.054933983058 0.055363858262 0.059340920215 
0.040925190673 0.040957212761 0.038730416489 0.038829642373 0.055124831567 0.023010174744 0.02103183788 0.022875218032 0.025281333808 
0.077795851976 0.057368982418 0.017551293171 0.024652755772 0.065152714468 0.11604565989 0.062138858697 0.0829258057 0.034477094842 
0.031253437999 0.10408384857 0.034671364376 0.036429768654 0.071707736591 0.082828072778 0.10672546782 0.018758966552 0.10504321729 
0.019051694912 0.019906930256 0.018955759565 0.023243633006 0.017371202487 0.075690217535 0.074034669273 0.074077747952 0.080981418499 
0.02222175676 0.060777855264 0.021760765366 0.076788382688 0.035845321377 0.06365411834 0.11794937758 0.13242160902 0.062533336392 
0.061636834892 0.023277351303 0.022695046873 0.021273365821 0.019535371531 0.07698187824 0.030354280965 0.035992816077 0.085413024507 
0.16723381099 0.052637402722 0.052533981022 0.23604729886 0.13215888122 0.052391973326 0.21451677178 0.0534517332 0.020321679282 
0.021331733035 0.020543115266 0.01848004534 0.03078463682 0.092568233802 0.14540791332 0.13948158946 0.074097353964 0.045645477907 
0.044671626765 0.090095819157 0.071634973455 0.069328426639 0.044621518342 0.035038680768 0.064938397153 0.049986828788 0.033063008652 
0.045073997591 0.13325934761 0.092412536065 0.11095479628 0.021284052672 0.020994440647 0.021434483821 0.32885239456 0.35525494057 
0.11329809383 0.04804269334 0.11287463254 0.05030743821 0.10958147467 0.053469347193 0.064006361524 0.044613077778 0.064886519704 
0.13375214454 0.040857558086 0.055123613728 0.069629112609 0.055136088598 0.055138525875 0.069637235153 0.070019781413 0.28134364804 
0.28341791426 0.28436271849 0.021369988967 0.076589018567 0.024730306695 0.069950337121 0.074505878564 0.041946804327 0.043829115006 
0.022280777834 0.058117264211 0.069907988868 0.050010506451 0.066284001247 0.066445638463 0.057909300496 0.020935280118 0.037940172441 
0.021054809727 0.11359432166 0.13132881468 0.033705481298 0.035434414862 0.034168796285 0.064944959914 0.036406545078 0.057721677623 
0.10239128637 0.10247098921 0.052540123758 0.022790972792 0.053883898904 0.045505236798 0.052681930413 0.057761493971 0.059508525035 
0.062026803796 0.052935663486 0.14584473967 0.069641137184 0.041629535785 0.062449129611 0.085862746689 0.067365382046 0.067436367787 
0.065230227022 0.059196466454 0.063675490106 0.059398481288 0.14496688039 0.046317065953 0.048816135207 0.051021972304 0.14173419753 
0.041536065228 0.14173966181 0.028208276545 0.047482587116 0.020286088429 0.025940573562 0.065153571603 0.059869613047 0.055379986781 
0.057605903532 0.06616540713 0.025738754499 0.05013963366 0.021502466238 0.047139245868 0.020304968676 0.023361682864 0.040139944332 
0.023266077247 0.025954400047 0.023505501216 0.2603143851 0.023606315553 0.025620243001 0.026729059627 0.14483015219 0.07023802773 
0.069167692766 0.018595865319 0.024607143929 0.029193240152 0.028788207345 0.018546785743 0.021349415554 0.020782004173 0.018931769916 
0.021387098381 0.081007337915 0.073311452867 0.021542663695 0.074866463702 0.079684443469 0.13531443579 0.081103827784 0.024037806439 
0.026677422602 0.026722229598 0.020047575761 0.029786498637 0.17252530454 0.030083478973 0.044272396103 0.044294353112 0.047143328907 
0.029827031105 0.18981976494 0.11750261693 0.044466780187 0.069229409361 0.13127621642 0.048081044501 0.047131507103 0.069636942169 
0.02119504079 0.023776523466 0.020973472384 0.024321290466 0.10689129038 0.072500269427 0.072490895702 0.20768810366 0.019682503111 
0.11843825246 0.1093152696 0.032175204414 0.16296956137 0.16323489241 0.14608718737 0.16281072577 0.10942006913 0.11135994317 
0.037105893502 0.1004524405 0.087058811107 0.081518938181 0.03777202378 0.26349672155 0.059074343432 0.057157650071 0.041433350511 
0.039664458656 0.031269517204 0.029012377737 0.032116663117 0.038920866818 0.03880586094 0.020300885521 0.071112839878 0.042962218661 
0.081333081418 0.084715605545 0.02343725711 0.19444735517 0.1012438199 0.026711062486 0.18692586261 0.19024737002 0.037250392987 
0.034854110316 0.039156935729 0.10946855488 0.080500385637 0.20555910285 0.071761354048 0.018750939236 0.048878291909 0.049295534954 
0.27305512841 0.032881655776 0.031230627325 0.045774319382 0.093247489295 0.093342072284 0.04994458599 0.20207022428 0.14168584035 
0.030860406465 0.02891945791 0.032071515237 0.041979012134 0.038653513625 0.024412632342 0.037722768739 0.040829212938 0.0236249614 
0.025330314481 0.039028448604 0.040612816374 0.021408484323 0.021444991959 0.021485329572 0.021018325968 0.044840657199 0.02801497028 
0.028502883459 0.019966860068 0.030401023238 0.073255216161 0.023371956545 0.086125348224 0.072644480257 0.023006502784 0.022173293635 
0.17551744315 0.17517473971 0.16331044641 0.12894297039 0.21511178881 0.20373360405 0.21508049614 0.18096420362 0.040891440119 
0.12276420335 0.044687727717 0.1756404084 0.035321972896 0.034945741601 0.035273079195 0.031582248046 0.038066983468 0.019001197212 
0.12503918299 0.098346425687 0.098235846682 0.15487739089 0.15532789445 0.036341460194 0.090099075797 0.02833017428 0.086826561019 
0.060145718138 0.11324594304 0.11847836447 0.10832781776 0.077923638109 0.023422002892 0.10858671715 0.28192213307 0.028310614543 
0.025631580207 0.073663720666 0.02504082045 0.053293583859 0.056798644701 0.070843874599 0.29401331429 0.29316618982 0.029614417673 
0.031700651692 0.031566162978 0.031017666572 0.020494648989 0.021785303229 0.02421977607 0.023688592753 0.095226381987 0.13422985248 
0.12342825831 0.026559807619 0.037048052282 0.030063860082 0.037147747078 0.028768042971 0.03576365812 0.029246027579 0.098088050359 
0.095498605238 0.033394616508 0.021399992243 0.12718988947 0.27145728516 0.12674408604 0.12314489989 0.031943730608 0.05789105459 
0.061042267307 0.060851608824 0.03257229628 0.032047055621 0.029218394249 0.071398735925 0.022134119912 0.074832321447 0.19254523663 
0.071386732672 0.021761280236 0.069084976742 0.19558331068 0.029301894552 0.029284456537 0.24532431385 0.19278182569 0.044881949789 
0.022709571849 0.028295164609 0.037883041035 0.038875044083 0.038816783533 0.039861688397 0.036931727066 0.23079307533 0.043849490414 
0.028204329475 0.041494689972 0.25419741998 0.023065558183 0.27017944731 0.022615149101 0.085096312012 0.0245747933 0.023319754762 
0.028830338051 0.02275828137 0.085015708524 0.33000224632 0.3325695488 0.087895500206 0.032278859021 0.18695635542 0.026369895499 
0.028715325363 0.22662092232 0.31126125465 0.028277215525 0.1077025954 0.10615664679 0.11069742463 0.098325504872 0.11089933609 
0.080371351984 0.078252838053 0.078399135143 0.35106428022 0.3712001762 0.021668340949 0.34552478435 0.35052449235 0.030549335894 
0.022565219034 0.021265896225 0.026455441222 0.055912252551 0.048288754415 0.04828098318 0.026868284021 0.026863182215 0.024020566884 
0.025411650556 0.021610028874 0.21604625081 0.028216330042 0.09824669853 0.028075918737 0.023995211666 0.040250828241 0.25965359172 
0.027965365516 0.25970204891 0.2597028968 0.02787786097 0.027973897233 0.22526717118 0.041555199225 0.033623860919 0.02727433617 
0.027986204627 0.028271476439 0.024837893117 0.032009597546 0.031979598255 0.22418922397 0.026167123498 0.033668612277 0.037959121204 
0.026447785981 0.037969320945 0.03990487006 0.03299464061 0.03596985655 0.13121059084 0.027579244236 0.037887265444 0.027815435609 
0.030651880055 0.022413361607 0.039815390084 0.035842422537 0.043287231534 0.017823861476 0.025533070237 0.023103285057 0.021794501273 
0.069474548004 0.35643447809 0.062266911158 0.041078842154 0.33835141307 0.10028497436 0.039767892874 0.035495017679 0.035527215133 
0.035536034106 0.034239503494 0.11372331129 0.12285194626 0.13119615459 0.19442044352 0.042274538034 0.032911811799 0.044954000167 
0.029745896633 0.021952270802 0.030106160753 0.023963737917 0.055496075375 0.14123117529 0.023545668418 0.22573041334 0.053298278557 
0.052596943211 0.030949051964 0.036699300521 0.022003387312 0.03353975712 0.11353313382 0.12586794725 0.14611853164 0.17577641422 
0.12555788362 0.094990506679 0.045596630772 0.04559023273 0.14980097834 0.14600787922 0.22029559718 0.11767278562 0.14731516716 
0.14733051605 0.14607058151 0.17940479583 0.050513590437 0.028269606075 0.050450740548 0.16869186623 0.039667299075 0.29425927183 
0.04075629947 0.29716384072 0.11979603752 0.18254154919 0.1817528032 0.1770062907 0.021779567695 0.17892066891 0.12003226791 
0.17546626532 0.17563237178 0.16239650035 0.025881093984 0.025593738786 0.0210038699 0.04761245958 0.098053556493 0.11804527515 
0.13131408307 0.031279846131 0.034623996746 0.2077130001 0.11807640697 0.13436012202 0.13235867863 0.27000484641 0.061916880153 
0.059266843373 0.16301213887 0.026829346934 0.079585482754 0.079562949208 0.089916948702 0.17551384727 0.086927541677 0.089989314507 
0.1948478595 0.21017770529 0.20910637082 0.10003664347 0.23341434289 0.045511497487 0.018193982836 0.040965925727 0.017959320306 
0.27737270945 0.046770460483 0.1207288029 0.10488846411 0.10501938938 0.26396304949 0.2780320646 0.26226733986 0.2632546667 
0.39500242124 0.031145512407 0.40131207767 0.03279016501 0.080151445395 0.26558663051 0.057794059056 0.099981978908 0.096798803053 
0.051257021152 0.052609310002 0.030031536778 0.02998316385 0.12154801357 0.030382971142 0.14758909196 0.026522832906 0.05368203974 
0.15225860546 0.1524101039 0.03791134934 0.027813412812 0.1636102978 0.023062100951 0.023054610475 0.02973501158 0.034925914789 
0.036209166119 0.033224833628 0.029104628922 0.13917356751 0.020726215825 0.020875906766 0.25122721268 0.2465617167 0.045322102042 
0.081140833406 0.10810225966 0.081174500033 0.1077318404 0.20529790584 0.020106535377 0.062867956529 0.060282793907 0.11509198343 
0.11655328926 0.11670500511 0.076952462807 0.098935237496 0.052986764525 0.048824774119 0.25148898353 0.24331283175 0.042670606434 
0.066436163716 0.058750924653 0.028867894318 0.1620003145 0.16199320377 0.13410777507 0.037050706934 0.13647858568 0.066017597167 
0.026848456801 0.063406072123 0.03431899382 0.060176486299 0.03364140451 0.10484405353 0.063243544047 0.179269128 0.034740208519 
0.033488397306 0.035157466512 0.022989942843 0.052992369544 0.03126529424 0.032598203613 0.038617384826 0.033225377962 0.03111600699 
0.25316659672 0.025643902254 0.038533873276 0.24802381329 0.042111279552 0.11121845624 0.040813954873 0.12306623294 0.11922998755 
0.034602343911 0.12499168587 0.23433760921 0.048194175534 0.21771447218 0.023711631565 0.021627644805 0.038438550781 0.067843516509 
0.12938003395 0.025337101147 0.024118674531 0.18973157295 0.048236855793 0.048285366285 0.044693656844 0.04456317967 0.042679504118 
0.035019441103 0.034803316845 0.020283026885 0.020375600807 0.021086827609 0.032996233446 0.031801069826 0.02355133401 0.025961784949 
0.15594337479 0.082035439805 0.022043081422 0.03238411809 0.032296515007 0.23219044711 0.034562478739 0.23261559033 0.036482894139 
0.036322641925 0.16972163309 0.059197048928 0.1736276165 0.023919241438 0.30112625736 0.30285050873 0.022316792083 0.10428780428 
0.06028577368 0.21408999917 0.033443281661 0.08342774246 0.084219770908 0.053355189112 0.20356069003 0.1627873688 0.16321052083 
0.098059314405 0.098026162675 0.035882947295 0.046959013648 0.097863614558 0.14129857903 0.056905079483 0.03535518719 0.051252907406 
0.1004999084 0.16716573312 0.029240383074 0.15702874953 0.1035397526 0.022199732587 0.028317566437 0.090753247692 0.093377620478 
0.10545280064 0.037390381063 0.1055220705 0.1364648199 0.14594263919 0.1460130851 0.025950081088 0.086736812409 0.087008854884 
0.0629315249 0.053669807044 0.058886705367 0.057390580372 0.055408330756 0.02692418196 0.084713264231 0.028710048441 0.083468883204 
0.042211293193 0.03161614078 0.032121125438 0.067927008075 0.088016050139 0.17160175772 0.062601653384 0.040710225146 0.01959949547 
0.12042586275 0.045592828439 0.12026863668 0.13204465003 0.13466211933 0.17195558116 0.031163484864 0.022919140135 0.025542858952 
0.062684863979 0.066562994602 0.023954868421 0.024244294203 0.13837733384 0.021032096755 0.16355044057 0.18940881308 0.021201383355 
0.17365028638 0.14466973937 0.049103777101 0.066090855264 0.023318003949 0.039861147752 0.043476287993 0.040260931078 0.048844488481 
0.030249044387 0.03308424765 0.064039911404 0.032513659198 0.064119288738 0.023298244984 0.047062879688 0.047350037505 0.04761006373 
0.083238717074 0.098808583182 0.089982785731 0.10913317605 0.046310318125 0.040746941291 0.023945268324 0.035557103059 0.086723302805 
0.056938066771 0.059121227343 0.050602743206 0.044525772959 0.033914465218 0.044892692953 0.033495393837 0.03530816491 0.071334477078 
0.026345666994 0.032656741347 0.037017459879 0.059647854409 0.056542219388 0.036866208745 0.018866574892 0.05877816182 0.021072904562 
0.019951549464 0.10625170549 0.072642355911 0.070148089119 0.072742364341 0.017777380253 0.069569942962 0.027527684111 0.16164475919 
0.030419743329 0.024122757403 0.027884410239 0.048272766579 0.044671473965 0.083565807575 0.077179625863 0.083626818004 0.050842738607 
0.14654867423 0.065104833789 0.033439752608 0.033320696056 0.068390677738 0.04659553683 0.022238912837 0.037981925784 0.040913895825 
0.026107546308 0.036657168553 0.021750644017 0.16316140699 0.060460542702 0.060509112939 0.043568436063 0.042219317022 0.099739617333 
0.091838610556 0.099912494469 0.086568497089 0.022992085203 0.091881378493 0.029391473799 0.062905348906 0.10043565525 0.045194474555 
0.068284459012 0.086083618192 0.083436018034 0.092391312846 0.065675734872 0.062466297322 0.080964443652 0.079510900974 0.045950288489 
0.0420740619 0.044542957507 0.020859516331 0.052389575352 0.0230371217 0.021418208902 0.032140063704 0.024734276489 0.17985763543 
0.070102506753 0.1796697542 0.075888015245 0.070334236864 0.059356902881 0.022664337661 0.053176880916 0.077765230633 0.52880663929 
0.40331404382 0.51071587933 0.077905155538 0.02234959002 0.052931880453 0.044407323333 0.038901337209 0.067296699265 0.067295786764 
0.065756135101 0.096781257722 0.086020390037 0.079516414279 0.071716020259 0.240617669 0.32214637351 0.31888825501 0.31351851458 
0.25039257575 0.097874289516 0.025341422787 0.025065163721 0.023762476865 0.092507303465 0.064583135327 0.064582233254 0.045736301336 
0.034618373817 0.03508591784 0.034624675066 0.035663554257 0.046941613151 0.052928698622 0.049498002727 0.06044668062 0.055379201481 
0.024903917089 0.04820414938 0.16835284421 0.074168899456 0.074352678792 0.080325406201 0.074710346551 0.026473838779 0.02563974251 
0.072712797882 0.026118897697 0.025822932458 0.074577032638 0.024102452059 0.063616723317 0.057904380393 0.046847558135 0.10092016574 
0.032207145923 0.077143571829 0.2244020852 0.075505397199 0.044679829687 0.057979471312 0.1087399418 0.031367945145 0.027309510141 