# vtk DataFile Version 4.2
vtk output
ASCII
DATASET UNSTRUCTURED_GRID
POINTS 11652 double
-1 0 0 0 1 0 0 0 1 
-6.1232339957e-17 -1 0 1 -1.2246467991e-16 0 -6.1232339957e-17 0 -1 
-0.9987954562 0.049067674445 0 -0.99518472665 0.098017140555 0 -0.98917650991 0.14673047481 0 
-0.9807852803 0.19509032252 0 -0.97003125304 0.24298018054 0 -0.9569403355 0.29028467802 0 
-0.94154406486 0.3368898543 0 -0.92387953208 0.38268343341 0 -0.90398929258 0.42755509458 0 
-0.88192126368 0.47139673807 0 -0.85772860921 0.5141027455 0 -0.83146961136 0.55557023443 0 
-0.80320753038 0.59569930598 0 -0.77301045207 0.63439328574 0 -0.74095112389 0.67155895647 0 
-0.70710677955 0.70710678283 0 -0.67155895324 0.74095112681 0 -0.63439328263 0.77301045462 0 
-0.59569930306 0.80320753254 0 -0.55557023163 0.83146961323 0 -0.51410274281 0.85772861083 0 
-0.47139673553 0.88192126504 0 -0.42755509221 0.9039892937 0 -0.38268343124 0.92387953298 0 
-0.33688985236 0.94154406555 0 -0.29028467637 0.956940336 0 -0.24298017919 0.97003125337 0 
-0.19509032142 0.98078528052 0 -0.14673047398 0.98917651003 0 -0.098017140032 0.9951847267 0 
-0.049067674204 0.99879545621 0 -0.049067674445 0 0.9987954562 -0.098017140555 0 0.99518472665 
-0.14673047481 0 0.98917650991 -0.19509032252 0 0.9807852803 -0.24298018054 0 0.97003125304 
-0.29028467802 0 0.9569403355 -0.3368898543 0 0.94154406486 -0.38268343341 0 0.92387953208 
-0.42755509458 0 0.90398929258 -0.47139673807 0 0.88192126368 -0.5141027455 0 0.85772860921 
-0.55557023443 0 0.83146961136 -0.59569930598 0 0.80320753038 -0.63439328574 0 0.77301045207 
-0.67155895647 0 0.74095112389 -0.70710678283 0 0.70710677955 -0.74095112681 0 0.67155895324 
-0.77301045462 0 0.63439328263 -0.80320753254 0 0.59569930306 -0.83146961323 0 0.55557023163 
-0.85772861083 0 0.51410274281 -0.88192126504 0 0.47139673553 -0.9039892937 0 0.42755509221 
-0.92387953298 0 0.38268343124 -0.94154406555 0 0.33688985236 -0.956940336 0 0.29028467637 
-0.97003125337 0 0.24298017919 -0.98078528052 0 0.19509032142 -0.98917651003 0 0.14673047398 
-0.9951847267 0 0.098017140032 -0.99879545621 0 0.049067674204 0 0.049067674445 0.9987954562 
0 0.098017140555 0.99518472665 0 0.14673047481 0.98917650991 0 0.19509032252 0.9807852803 
0 0.24298018054 0.97003125304 0 0.29028467802 0.9569403355 0 0.3368898543 0.94154406486 
0 0.38268343341 0.92387953208 0 0.42755509458 0.90398929258 0 0.47139673807 0.88192126368 
0 0.5141027455 0.85772860921 0 0.55557023443 0.83146961136 0 0.59569930598 0.80320753038 
0 0.63439328574 0.77301045207 0 0.67155895647 0.74095112389 0 0.70710678283 0.70710677955 
0 0.74095112681 0.67155895324 0 0.77301045462 0.63439328263 0 0.80320753254 0.59569930306 
0 0.83146961323 0.55557023163 0 0.85772861083 0.51410274281 0 0.88192126504 0.47139673553 
0 0.9039892937 0.42755509221 0 0.92387953298 0.38268343124 0 0.94154406555 0.33688985236 
0 0.956940336 0.29028467637 0 0.97003125337 0.24298017919 0 0.98078528052 0.19509032142 
0 0.98917651003 0.14673047398 0 0.9951847267 0.098017140032 0 0.99879545621 0.049067674204 
-0.049067674445 -0.9987954562 0 -0.098017140555 -0.99518472665 0 -0.14673047481 -0.98917650991 0 
-0.19509032252 -0.9807852803 0 -0.24298018054 -0.97003125304 0 -0.29028467802 -0.9569403355 0 
-0.3368898543 -0.94154406486 0 -0.38268343341 -0.92387953208 0 -0.42755509458 -0.90398929258 0 
-0.47139673807 -0.88192126368 0 -0.5141027455 -0.85772860921 0 -0.55557023443 -0.83146961136 0 
-0.59569930598 -0.80320753038 0 -0.63439328574 -0.77301045207 0 -0.67155895647 -0.74095112389 0 
-0.70710678283 -0.70710677955 0 -0.74095112681 -0.67155895324 0 -0.77301045462 -0.63439328263 0 
-0.80320753254 -0.59569930306 0 -0.83146961323 -0.55557023163 0 -0.85772861083 -0.51410274281 0 
-0.88192126504 -0.47139673553 0 -0.9039892937 -0.42755509221 0 -0.92387953298 -0.38268343124 0 
-0.94154406555 -0.33688985236 0 -0.956940336 -0.29028467637 0 -0.97003125337 -0.24298017919 0 
-0.98078528052 -0.19509032142 0 -0.98917651003 -0.14673047398 0 -0.9951847267 -0.098017140032 0 
-0.99879545621 -0.049067674204 0 -3.0045285226e-18 -0.049067674445 0.9987954562 -6.0018188721e-18 -0.098017140555 0.99518472665 
-8.9846503157e-18 -0.14673047481 0.98917650991 -1.1945836951e-17 -0.19509032252 0.9807852803 -1.4878245018e-17 -0.24298018054 0.97003125304 
-1.7774810089e-17 -0.29028467802 0.9569403355 -2.0628554087e-17 -0.3368898543 0.94154406486 -2.3432602091e-17 -0.38268343341 0.92387953208 
-2.6180198902e-17 -0.42755509458 0.90398929258 -2.886472532e-17 -0.47139673807 0.88192126368 -3.1479714086e-17 -0.5141027455 0.85772860921 
-3.4018865465e-17 -0.55557023443 0.83146961136 -3.6476062416e-17 -0.59569930598 0.80320753038 -3.8845385339e-17 -0.63439328574 0.77301045207 
-4.1121126324e-17 -0.67155895647 0.74095112389 -4.3297802912e-17 -0.70710678283 0.70710677955 -4.5370171289e-17 -0.74095112681 0.67155895324 
-4.7333238948e-17 -0.77301045462 0.63439328263 -4.9182276689e-17 -0.80320753254 0.59569930306 -5.0912830022e-17 -0.83146961323 0.55557023163 
-5.2520729889e-17 -0.85772861083 0.51410274281 -5.4002102717e-17 -0.88192126504 0.47139673553 -5.535337975e-17 -0.9039892937 0.42755509221 
-5.6571305643e-17 -0.92387953298 0.38268343124 -5.7652946307e-17 -0.94154406555 0.33688985236 -5.8595695973e-17 -0.956940336 0.29028467637 
-5.9397283476e-17 -0.97003125337 0.24298017919 -6.0055777722e-17 -0.98078528052 0.19509032142 -6.056959234e-17 -0.98917651003 0.14673047398 
-6.0937489506e-17 -0.9951847267 0.098017140032 -6.1158582923e-17 -0.99879545621 0.049067674204 0.9987954562 -0.049067674445 0 
0.99518472665 -0.098017140555 0 0.98917650991 -0.14673047481 0 0.9807852803 -0.19509032252 0 
0.97003125304 -0.24298018054 0 0.9569403355 -0.29028467802 0 0.94154406486 -0.3368898543 0 
0.92387953208 -0.38268343341 0 0.90398929258 -0.42755509458 0 0.88192126368 -0.47139673807 0 
0.85772860921 -0.5141027455 0 0.83146961136 -0.55557023443 0 0.80320753038 -0.59569930598 0 
0.77301045207 -0.63439328574 0 0.74095112389 -0.67155895647 0 0.70710677955 -0.70710678283 0 
0.67155895324 -0.74095112681 0 0.63439328263 -0.77301045462 0 0.59569930306 -0.80320753254 0 
0.55557023163 -0.83146961323 0 0.51410274281 -0.85772861083 0 0.47139673553 -0.88192126504 0 
0.42755509221 -0.9039892937 0 0.38268343124 -0.92387953298 0 0.33688985236 -0.94154406555 0 
0.29028467637 -0.956940336 0 0.24298017919 -0.97003125337 0 0.19509032142 -0.98078528052 0 
0.14673047398 -0.98917651003 0 0.098017140032 -0.9951847267 0 0.049067674204 -0.99879545621 0 
0.049067674445 -6.0090570451e-18 0.9987954562 0.098017140555 -1.2003637744e-17 0.99518472665 0.14673047481 -1.7969300631e-17 0.98917650991 
0.19509032252 -2.3891673902e-17 0.9807852803 0.24298018054 -2.9756490035e-17 0.97003125304 0.29028467802 -3.5549620178e-17 0.9569403355 
0.3368898543 -4.1257108173e-17 0.94154406486 0.38268343341 -4.6865204181e-17 0.92387953208 0.42755509458 -5.2360397804e-17 0.90398929258 
0.47139673807 -5.772945064e-17 0.88192126368 0.5141027455 -6.2959428171e-17 0.85772860921 0.55557023443 -6.803773093e-17 0.83146961136 
0.59569930598 -7.2952124833e-17 0.80320753038 0.63439328574 -7.7690770678e-17 0.77301045207 0.67155895647 -8.2242252648e-17 0.74095112389 
0.70710678283 -8.6595605824e-17 0.70710677955 0.74095112681 -9.0740342578e-17 0.67155895324 0.77301045462 -9.4666477896e-17 0.63439328263 
0.80320753254 -9.8364553378e-17 0.59569930306 0.83146961323 -1.0182566004e-16 0.55557023163 0.85772861083 -1.0504145978e-16 0.51410274281 
0.88192126504 -1.0800420543e-16 0.47139673553 0.9039892937 -1.107067595e-16 0.42755509221 0.92387953298 -1.1314261129e-16 0.38268343124 
0.94154406555 -1.1530589261e-16 0.33688985236 0.956940336 -1.1719139195e-16 0.29028467637 0.97003125337 -1.1879456695e-16 0.24298017919 
0.98078528052 -1.2011155544e-16 0.19509032142 0.98917651003 -1.2113918468e-16 0.14673047398 0.9951847267 -1.2187497901e-16 0.098017140032 
0.99879545621 -1.2231716585e-16 0.049067674204 0.049067674435 0.9987954562 0 0.098017140544 0.99518472665 0 
0.14673047478 0.98917650992 0 0.19509032248 0.98078528031 0 0.24298018048 0.97003125305 0 
0.29028467793 0.95694033553 0 0.3368898542 0.94154406489 0 0.38268343328 0.92387953213 0 
0.42755509448 0.90398929263 0 0.47139673797 0.88192126374 0 0.51410274536 0.8577286093 0 
0.55557023423 0.83146961149 0 0.59569930583 0.80320753049 0 0.63439328553 0.77301045224 0 
0.67155895625 0.74095112408 0 0.70710678257 0.70710677981 0 0.74095112657 0.6715589535 0 
0.77301045445 0.63439328284 0 0.80320753244 0.5956993032 0 0.83146961309 0.55557023185 0 
0.85772861068 0.51410274306 0 0.88192126492 0.47139673576 0 0.90398929362 0.42755509237 0 
0.92387953291 0.3826834314 0 0.94154406548 0.33688985256 0 0.95694033594 0.29028467657 0 
0.97003125335 0.2429801793 0 0.98078528051 0.19509032149 0 0.98917651002 0.14673047405 0 
0.99518472669 0.098017140105 0 0.99879545621 0.049067674281 0 -6.1158582922e-17 0.049067674445 -0.9987954562 
-6.0937489503e-17 0.098017140555 -0.99518472665 -6.0569592333e-17 0.14673047481 -0.98917650991 -6.0055777709e-17 0.19509032252 -0.9807852803 
-5.9397283455e-17 0.24298018054 -0.97003125304 -5.8595695942e-17 0.29028467802 -0.9569403355 -5.7652946264e-17 0.3368898543 -0.94154406486 
-5.6571305588e-17 0.38268343341 -0.92387953208 -5.5353379681e-17 0.42755509458 -0.90398929258 -5.4002102634e-17 0.47139673807 -0.88192126368 
-5.2520729791e-17 0.5141027455 -0.85772860921 -5.0912829907e-17 0.55557023443 -0.83146961136 -4.9182276556e-17 0.59569930598 -0.80320753038 
-4.7333238792e-17 0.63439328574 -0.77301045207 -4.537017111e-17 0.67155895647 -0.74095112389 -4.3297802711e-17 0.70710678283 -0.70710677955 
-4.1121126126e-17 0.74095112681 -0.67155895324 -3.8845385149e-17 0.77301045462 -0.63439328263 -3.6476062237e-17 0.80320753254 -0.59569930306 
-3.4018865293e-17 0.83146961323 -0.55557023163 -3.1479713921e-17 0.85772861083 -0.51410274281 -2.8864725165e-17 0.88192126504 -0.47139673553 
[...]
CELL_DATA 11648
SCALARS $\Phi$ double
LOOKUP_TABLE default
0.020779493013 0.030679607263 0.044288022064 0.020523119459 0.04248800878 0.09066138199 0.092266470279 0.022679759345 0.034829735932 
0.32019325751 0.34095381118 0.025086203646 0.023069159087 0.30462413393 0.28621877559 0.019350761979 0.25005494641 0.028201558821 
0.029652476899 0.18124742071 0.020586690555 0.022021040384 0.018719716997 0.2717988709 0.24928982911 0.019605295189 0.019402610828 
0.26037808932 0.062522711127 0.026044599431 0.062581155769 0.092062945324 0.02079288162 0.066184320609 0.07075878267 0.034559907641 
0.16189624591 0.02235888701 0.023101749412 0.018520443564 0.029528962066 0.31926792901 0.30949279284 0.081257170797 0.092428464453 
0.02123972969 0.020081241635 0.07907694986 0.020998451776 0.027852152654 0.029888181564 0.061088095412 0.018302635279 0.094225652525 
0.03649513012 0.094189702115 0.080472127663 0.074281783593 0.018946864824 0.1338170288 0.13405058919 0.12503749657 0.021934412688 
0.15805188104 0.059469514915 0.056661870255 0.019288658017 0.020005925348 0.019437287056 0.15660278854 0.040494889076 0.041190614591 
0.11383042532 0.035002091689 0.024070574809 0.023425834616 0.040263860003 0.043694653838 0.19497052867 0.19381552911 0.02158444944 
0.022980007248 0.091870896889 0.31842811107 0.098869530881 0.047161507951 0.071810891945 0.024986868664 0.047048372891 0.026519764838 
0.069552125603 0.024971681192 0.074318724556 0.023897729924 0.20831433638 0.024444594747 0.22673677009 0.22178148103 0.14478304428 
0.048833772876 0.048636853929 0.076013200841 0.075794028735 0.044824080612 0.29038761588 0.044359560596 0.21536294494 0.035291083346 
0.16719769284 0.15953907586 0.025919426447 0.025058517381 0.18161581584 0.15003462178 0.19499098839 0.15045571319 0.037777587121 
0.037939848675 0.039745191212 0.038267226255 0.035268803861 0.025300174925 0.034404563713 0.03085747578 0.057493039008 0.39659560253 
0.29512021538 0.12228355914 0.024148913424 0.024952155686 0.025709080957 0.12179304263 0.048882160714 0.028438980918 0.051257351315 
0.18276928997 0.30301414068 0.040439390167 0.29273769699 0.029059189793 0.057623153327 0.12508079295 0.1209320341 0.038032966468 
0.029268521726 0.23486825834 0.019003229472 0.021360561454 0.048620406965 0.048559894937 0.03955524503 0.03826079878 0.052975933648 
0.052347233054 0.0217053556 0.2337849073 0.098359368896 0.030267881333 0.030360943848 0.026808699764 0.03116237321 0.024622548299 
0.10270288708 0.025367616063 0.023513757307 0.10701106656 0.1129220641 0.092266849526 0.045200286562 0.092335525299 0.021961129707 
0.038941063749 0.026715753063 0.11769817009 0.16366483976 0.024372611123 0.024112404285 0.2729279119 0.03329487758 0.15083066214 
0.28893798487 0.28819294068 0.022793527222 0.023452748302 0.1415608902 0.24209201274 0.23298596145 0.053084251984 0.24184340325 
0.22983455003 0.018289672224 0.020353038013 0.035112281799 0.036382312888 0.16170393582 0.043774809431 0.04097148627 0.040829173088 
0.11434971401 0.16917979294 0.030496650429 0.028766167255 0.10238805103 0.03265501841 0.022292306884 0.032122102341 0.033486772452 
0.20901754049 0.035812207709 0.085494430238 0.039859029175 0.035161237485 0.019877156272 0.059067297392 0.020985222809 0.13192924215 
0.035425327169 0.051397404866 0.08004802855 0.02268364787 0.14178889384 0.020716272934 0.025247347936 0.024104714513 0.02501370566 
0.13337696877 0.1936831746 0.020223981454 0.1313012749 0.020797734184 0.020715865255 0.031655338294 0.020131884155 0.034574786599 
0.037484504415 0.017995872959 0.018400317735 0.046210818646 0.048657461769 0.017974059341 0.028375514668 0.029643125063 0.040346392457 
0.033444486811 0.046225197974 0.046243325479 0.07741670673 0.08130097077 0.052573401474 0.036799083081 0.02679962699 0.081069118477 
0.080957467213 0.047673111349 0.074602078595 0.023345560669 0.10237468806 0.023171180751 0.083377489375 0.069680354434 0.035314048256 
0.041794780159 0.041808062332 0.037863083165 0.038886565179 0.041753936875 0.028100922498 0.04043643891 0.024677132958 0.31981899047 
0.030544511061 0.032962122208 0.21393296191 0.032609421506 0.033711432407 0.031313613929 0.1147461521 0.086661787267 0.1412422468 
0.086402921277 0.080120231666 0.06285581429 0.10485596033 0.020493336801 0.026957358871 0.026922181846 0.019889409428 0.078782050172 
0.070255097062 0.063585809453 0.063615730718 0.027169555543 0.31233603101 0.026337005878 0.029306003106 0.043267418851 0.029399550127 
0.07188815369 0.074734948564 0.2191698454 0.2183619553 0.057769833197 0.058041062448 0.13489440279 0.07677027059 0.052846756343 
0.11162026669 0.046370633659 0.044291192402 0.051675898566 0.045692213148 0.045612547929 0.074549934526 0.087876055578 0.049054825599 
0.052577242739 0.040164563225 0.044808636906 0.037451552586 0.076938772682 0.044454572447 0.05309162338 0.04810355756 0.048315257342 
0.021254664359 0.076959602537 0.15739350925 0.16926500528 0.1687457676 0.020001069889 0.03711415764 0.03838268442 0.18805919182 
0.18827602779 0.23193785734 0.10265498664 0.10860338632 0.048858709515 0.2066874397 0.051520533132 0.060407553338 0.19681308665 
0.057912181116 0.066660875806 0.066844194095 0.02130299895 0.10390028546 0.023417966687 0.054933852596 0.055363726778 0.059340779286 
0.04092509348 0.040957115492 0.038730324508 0.038829550157 0.055124700651 0.023010120097 0.021031787932 0.022875163706 0.025281273767 
0.077795667218 0.057368846172 0.017551251488 0.024652697224 0.065152559736 0.11604538429 0.062138711123 0.082925608759 0.034477012962 
0.031253363775 0.10408360138 0.034671282035 0.036429682137 0.071707566292 0.08282787607 0.10672521435 0.018758922002 0.10504296782 
0.019051649666 0.019906882979 0.018955714547 0.023243577805 0.017371161232 0.075690037778 0.074034493448 0.074077572025 0.080981226176 
0.022221703985 0.060777710923 0.021760713687 0.076788200323 0.035845236247 0.063653967168 0.11794909747 0.13242129453 0.062533187881 
0.06163668851 0.023277296022 0.022694992975 0.021273315299 0.019535325136 0.076981695416 0.030354208877 0.035992730598 0.08541282166 
0.16723341382 0.052637277714 0.052533856259 0.23604673827 0.13215856735 0.0523918489 0.21451626233 0.053451606257 0.020321631019 
0.021331682374 0.020543066478 0.018480001451 0.03078456371 0.092568013961 0.14540756799 0.13948125821 0.07409717799 0.045645369503 
0.044671520674 0.090095605188 0.071634803329 0.069328261991 0.04462141237 0.035038597555 0.064938242931 0.049986710074 0.033062930131 
0.045073890545 0.13325903113 0.092412316595 0.11095453277 0.021284002124 0.020994390787 0.021434432916 0.32885161357 0.35525409687 
0.11329782475 0.048042579243 0.11287436447 0.050307318735 0.10958121443 0.053469220208 0.064006209515 0.044612971827 0.064886365605 
0.13375182689 0.040857461054 0.055123482815 0.069628947247 0.055135957655 0.055138394926 0.069637069771 0.070019615123 0.28134297988 
0.28341724117 0.28436204316 0.021369938215 0.076588836675 0.024730247963 0.069950170996 0.074505701619 0.041946704708 0.043829010916 
0.022280724919 0.058117126188 0.069907822844 0.050010387681 0.066283843829 0.066445480661 0.057909162967 0.020935230398 0.037940082336 
0.021054759724 0.11359405189 0.13132850278 0.033705401251 0.035434330708 0.034168715138 0.064944805676 0.036406458616 0.05772154054 
0.1023910432 0.10247074585 0.05253999898 0.022790918665 0.053883770935 0.045505128727 0.052681805298 0.057761356793 0.059508383708 
0.062026656489 0.052935537769 0.1458443933 0.069640971793 0.041629436919 0.0624489813 0.085862542773 0.067365222059 0.067436207632 
0.065230072107 0.059196325868 0.063675338883 0.059398340222 0.14496653611 0.046316955954 0.048816019273 0.051021851132 0.14173386092 
0.041535966583 0.14173932519 0.028208209554 0.047482474349 0.020286040252 0.025940511956 0.065153416869 0.059869470863 0.055379855259 
0.057605766724 0.066165249994 0.025738693372 0.050139514583 0.021502415171 0.047139133917 0.020304920454 0.023361627382 0.040139849003 
0.023266021992 0.025954338408 0.023505445393 0.26031376688 0.02360625949 0.025620182156 0.026728996148 0.14482980823 0.070237860921 
0.069167528499 0.018595821155 0.02460708549 0.029193170821 0.028788138976 0.018546741696 0.021349364851 0.020781954818 0.018931724955 
0.021387047588 0.081007145531 0.073311278759 0.021542612533 0.074866285901 0.079684254226 0.13531411443 0.08110363517 0.024037749351 
0.026677359246 0.026722166135 0.02004752815 0.029786427897 0.17252489481 0.030083407527 0.04427229096 0.044294247917 0.047143216946 
0.029826960269 0.18981931414 0.11750233787 0.044466674583 0.069229244948 0.13127590465 0.048080930313 0.04713139517 0.069636776788 
0.021194990454 0.023776466999 0.020973422574 0.024321232706 0.10689103653 0.072500097245 0.072490723543 0.20768761042 0.019682456367 
0.11843797119 0.10931500999 0.032175128001 0.16296917434 0.16323450474 0.14608684043 0.16281033911 0.10941980927 0.1113596787 
0.037105805379 0.10045220193 0.087058604351 0.081518744581 0.037771934075 0.26349609577 0.059074203136 0.057157514327 0.041433252111 
0.039664364457 0.031269442942 0.029012308836 0.032116586843 0.038920774384 0.038805768779 0.020300837308 0.071112670992 0.042962116629 
0.08133288826 0.084715404354 0.023437201448 0.19444689337 0.10124357945 0.02671099905 0.18692541868 0.1902469182 0.037250304521 
0.034854027541 0.039156842735 0.10946829491 0.080500194456 0.20555861467 0.071761183621 0.018750894704 0.048878175828 0.049295417882 
0.27305447993 0.032881577686 0.031230553155 0.045774210672 0.093247267842 0.093341850606 0.049944467376 0.20206974439 0.14168550386 
0.030860333174 0.028919389229 0.03207143907 0.041978912438 0.038653421826 0.024412574365 0.037722679151 0.040829115972 0.023624905293 
0.025330254324 0.039028355915 0.040612719922 0.02140843348 0.021444941029 0.021485278546 0.021018276051 0.044840550707 0.028014903747 
0.028502815768 0.019966812649 0.030400951038 0.073255042187 0.023371901039 0.086125143684 0.072644307733 0.023006448145 0.022173240976 
0.17551702632 0.17517432369 0.16331005856 0.12894266416 0.21511127794 0.2037331202 0.21507998534 0.18096377385 0.040891343006 
0.1227639118 0.044687621588 0.17563999127 0.03532188901 0.034945658608 0.035272995425 0.031582173042 0.038066893063 0.019001152086 
0.12503888603 0.098346192124 0.098235613382 0.15487702308 0.15532752556 0.036341373887 0.090098861821 0.028330106998 0.086826354814 
0.060145575298 0.1132456741 0.1184780831 0.10832756049 0.077923453048 0.023421947267 0.10858645927 0.28192146353 0.028310547308 
0.025631519335 0.073663545722 0.025040760981 0.053293457292 0.05679850981 0.070843706352 0.29401261603 0.29316549358 0.029614347342 
0.031700576406 0.031566088012 0.031017592908 0.020494600316 0.021785251491 0.02421971855 0.023688536495 0.095226155834 0.13422953369 
0.12342796518 0.026559744542 0.037047964297 0.030063788683 0.037147658856 0.02876797465 0.035763573185 0.029245958122 0.098087817409 
0.095498378438 0.033394537199 0.02139994142 0.1271895874 0.27145664047 0.12674378503 0.12314460744 0.031943654745 0.057890917104 
0.061042122337 0.060851464308 0.032572218924 0.032046979512 0.029218324858 0.07139856636 0.022134067346 0.074832143728 0.19254477935 
0.071386563136 0.021761228555 0.069084812671 0.19558284619 0.029301824963 0.029284386989 0.24532373123 0.19278136785 0.044881843199 
0.022709517916 0.028295097411 0.037882951066 0.038874951758 0.038816691347 0.039861593729 0.036931639357 0.23079252722 0.043849386275 
0.028204262492 0.041494591426 0.25419681629 0.023065503405 0.27017880566 0.022615095392 0.085096109916 0.024574734937 0.02331969938 
0.028830269582 0.022758227322 0.08501550662 0.33000146259 0.33256875898 0.087895291462 0.032278782362 0.18695591142 0.026369832873 
0.028715257166 0.22662038412 0.31126051544 0.02827714837 0.10770233962 0.10615639468 0.11069716173 0.098325271359 0.11089907272 
0.08037116111 0.07825265221 0.078398948953 0.35106344647 0.37119929463 0.021668289489 0.34552396376 0.35052365988 0.030549263343 
0.022565165443 0.021265845721 0.026455378393 0.055912119764 0.048288639734 0.048280868518 0.026868220211 0.026863118418 0.024020509838 
0.025411590206 0.021609977552 0.21604573772 0.028216263031 0.098246465204 0.028075852059 0.023995154679 0.040250732649 0.25965297507 
0.027965299101 0.25970143214 0.25970228004 0.027877794763 0.027973830798 0.22526663619 0.041555100536 0.033623781066 0.027274271396 
0.027986138163 0.028271409297 0.024837834129 0.032009521526 0.031979522307 0.22418869154 0.026167061354 0.033668532317 0.037959031055 
0.02644772317 0.037969230771 0.03990477529 0.032994562251 0.035969771125 0.13121027923 0.027579178737 0.037887175465 0.02781536955 
0.030651807259 0.022413308378 0.039815295526 0.035842337415 0.043287128731 0.017823819146 0.025533009598 0.023103230189 0.021794449513 
0.069474383009 0.35643363159 0.06226676328 0.041078744595 0.33835060952 0.1002847362 0.039767798429 0.035494933382 0.03552713076 
0.035535949712 0.034239422179 0.11372304121 0.1228516545 0.13119584301 0.19441998179 0.042274437636 0.032911733637 0.044953893405 
0.029745825989 0.021952218668 0.030106089254 0.023963681005 0.055495943577 0.14123083988 0.023545612499 0.22572987725 0.053298151979 
0.052596818298 0.030948978463 0.036699213364 0.022003335056 0.033539677467 0.11353286419 0.12586764832 0.14611818462 0.17577599677 
0.12555758543 0.094990281086 0.045596522485 0.045590124458 0.14980062258 0.14600753247 0.220295074 0.11767250616 0.1473148173 
0.14733016615 0.1460702346 0.17940436976 0.050513470473 0.028269538938 0.050450620733 0.16869146561 0.039667204869 0.29425857299 
0.040756202677 0.29716313498 0.11979575302 0.18254111567 0.18175237156 0.17700587033 0.021779515971 0.17892024399 0.12003198284 
0.1754658486 0.17563195467 0.16239611468 0.025881032518 0.025593678003 0.021003820018 0.047612346505 0.098053323625 0.1180449948 
0.13131377121 0.031279771845 0.034623914518 0.2077125068 0.11807612655 0.13435980293 0.13235836429 0.27000420517 0.061916733106 
0.05926670262 0.16301175173 0.026829283217 0.079585293746 0.079562760254 0.089916735158 0.17551343045 0.086927335232 0.089989100791 
0.19484739675 0.21017720614 0.20910587421 0.1000364059 0.23341378856 0.045511389402 0.018193939627 0.040965828437 0.017959277654 
0.27737205072 0.046770349408 0.12072851618 0.10488821501 0.10501913996 0.26396242261 0.2780314043 0.262266717 0.26325404149 
0.39500148315 0.031145438439 0.40131112459 0.032790087137 0.080151255043 0.26558599977 0.057793921801 0.099981741461 0.096798573165 
0.051256899421 0.05260918506 0.030031465456 0.029983092643 0.1215477249 0.030382898985 0.14758874145 0.026522769917 0.053681912251 
0.15225824386 0.15240974194 0.037911259304 0.027813346758 0.16360990924 0.023062046181 0.023054555723 0.029734940962 0.034925831843 
0.036209080126 0.033224754723 0.029104559801 0.13917323699 0.020726166602 0.020875857188 0.25122661603 0.24656113114 0.045321994406 
0.081140640704 0.10810200293 0.081174307251 0.10773158455 0.20529741828 0.020106487626 0.062867807224 0.060282650741 0.1150917101 
0.11655301246 0.11670472794 0.076952280053 0.098935002534 0.052986638687 0.048824658165 0.25148838627 0.2433122539 0.042670505095 
0.066436005937 0.058750785125 0.02886782576 0.16199992976 0.16199281905 0.13410745658 0.037050618942 0.13647826156 0.066017440382 
0.026848393038 0.06340592154 0.034318912316 0.060176343386 0.033641324615 0.10484380453 0.06324339385 0.17926870226 0.034740126015 
0.033488317774 0.035157383017 0.022989888245 0.052992243692 0.031265219988 0.032598126196 0.038617293114 0.033225299055 0.031115933093 
0.25316599547 0.025643841352 0.038533781761 0.24802322425 0.042111179542 0.1112181921 0.040813857944 0.12306594067 0.11922970439 
0.034602261734 0.12499138902 0.23433705268 0.048194061077 0.21771395513 0.023711575252 0.021627593441 0.038438459494 0.067843355387 
0.12937972669 0.025337040974 0.024118617252 0.18973112236 0.048236741236 0.048285251612 0.044693550701 0.044563073837 0.042679402758 
0.035019357936 0.03480323419 0.020282978714 0.020375552417 0.021086777529 0.032996155083 0.031800994301 0.023551278078 0.025961723292 
0.15594300444 0.082035244979 0.022043029072 0.032384041181 0.032296438306 0.23218989568 0.034562396657 0.2326150379 0.036482807496 
0.036322555662 0.16972123002 0.059196908341 0.17362720415 0.023919184632 0.30112554221 0.30284978949 0.022316739083 0.10428755661 
0.060285630507 0.21408949073 0.033443202236 0.083427544327 0.084219570894 0.053355062399 0.20356020659 0.16278698219 0.16321013322 
0.098059081524 0.098025929872 0.035882862077 0.046958902125 0.097863382142 0.14129824346 0.056904944339 0.035355103224 0.051252785686 
0.10049966972 0.16716533612 0.029240313631 0.15702837661 0.1035395067 0.022199679865 0.028317499185 0.090753032162 0.093377398716 
0.1054525502 0.037390292265 0.10552181989 0.13646449581 0.14594229259 0.14601273833 0.025950019459 0.086736606418 0.087008648247 
0.062931375444 0.053669679584 0.058886565516 0.057390444075 0.055408199166 0.026924118018 0.084713063045 0.028709980257 0.083468684974 
0.042211192945 0.031616065695 0.032121049153 0.067926846755 0.088015841109 0.17160135018 0.062601504712 0.040710128463 0.019599448923 
0.12042557675 0.045592720161 0.12026835106 0.13204433644 0.13466179952 0.17195517278 0.031163410854 0.022919085704 0.02554279829 
0.062684715109 0.066562836522 0.02395481153 0.024244236625 0.13837700521 0.021032046806 0.16355005215 0.18940836325 0.021201333004 
0.17364987398 0.14466939579 0.049103660484 0.066090698305 0.023317948571 0.039861053085 0.043476184741 0.040260835462 0.04884437248 
0.030248972548 0.033084169078 0.064039759315 0.032513581981 0.064119136461 0.023298189653 0.047062767918 0.047349925053 0.047609950661 
0.08323851939 0.098808348521 0.08998257203 0.10913291687 0.046310208142 0.040746844521 0.023945211457 0.035557018614 0.086723096846 
0.056937931549 0.059121086936 0.05060262303 0.044525667215 0.033914384674 0.044892586337 0.033495314289 0.035308081057 0.071334307666 
0.026345604426 0.03265666379 0.037017371966 0.059647712751 0.056542085106 0.036866121191 0.018866530086 0.058778022228 0.021072854516 
0.019951502081 0.10625145315 0.072642183392 0.070147922524 0.072742191585 0.017777338034 0.069569777741 0.027527618735 0.1616443753 
0.030419671085 0.024122700114 0.027884344016 0.048272651936 0.044671367875 0.083565609115 0.077179442569 0.083626619398 0.05084261786 
0.14654832619 0.065104679171 0.033439673191 0.033320616923 0.068390515317 0.04659542617 0.022238860021 0.037981835581 0.040913798659 
0.026107484305 0.036657081496 0.021750592361 0.16316101949 0.060460399114 0.060508969236 0.043568332592 0.042219216755 0.099739380461 
0.091838392449 0.099912257186 0.086568291497 0.022992030599 0.091881160284 0.029391403997 0.062905199512 0.10043541672 0.045194367223 
0.068284296843 0.086083413752 0.083435819882 0.092391093426 0.065675578898 0.062466148971 0.080964251369 0.079510712143 0.045950179361 
0.042073961978 0.044542851722 0.020859466792 0.052389450932 0.023037066989 0.021418158036 0.032139987375 0.024734217747 0.17985720828 
0.070102340267 0.17966932751 0.075887835019 0.070334069827 0.059356761914 0.022664283836 0.053176754626 0.077765045948 0.52880538343 
0.40331308599 0.51071466643 0.077904970521 0.022349536941 0.052931754745 0.04440721787 0.038901244822 0.067296539442 0.067295626943 
0.065755978937 0.096781027876 0.086020185747 0.079516225435 0.07171584994 0.24061709756 0.32214560844 0.31888749768 0.31351777001 
0.25039198109 0.097874057074 0.025341362604 0.025065104194 0.023762420431 0.09250708377 0.064582981948 0.064582079877 0.045736192717 
0.034618291601 0.035085834514 0.034624592836 0.03566346956 0.046941501669 0.052928572922 0.049497885175 0.060446537065 0.055379069961 
0.024903857945 0.0482040349 0.16835244439 0.074168723312 0.074352502211 0.080325215436 0.074710169121 0.026473775906 0.025639681618 
0.072712625196 0.026118835667 0.025822871131 0.074576855525 0.024102394818 0.063616572233 0.057904242876 0.046847446877 0.10091992606 
0.032207069434 0.077143388621 0.22440155227 0.075505217881 0.044679723577 0.057979333616 0.10873968355 0.031367870649 0.027309445283 